lammpslib autogenerated data file

12 atoms
8 bonds
4 angles

2 atom types
1 bond types
1 angle types

  0.00000000e+00   1.00177907e+01 xlo xhi
  0.00000000e+00   1.00177906e+01 ylo yhi
  0.00000000e+00   7.54856124e+00 zlo zhi


Masses 

  1 15.9994
  2  1.0000


Bond Coeffs 

 1    1.78    0.2708585 -0.327738785 0.231328959


Angle Coeffs 

  1    0.0700  107.400000

Atoms 

   1    1    1  -1.1128       9.54296997       6.67474612       3.32076262
   2    1    2   0.5564       0.99965921       7.62373225       2.77207823
   3    1    2   0.5564       0.07771665       5.57814965       4.68381231
   4    2    1  -1.1128       0.47482076       3.34304455       7.09504320
   5    2    2   0.5564       9.01813152       2.39405840       6.54635883
   6    2    2   0.5564       9.94007409       4.43964102       0.90953166
   7    3    1  -1.1128       3.34304453       9.54296990       1.43362225
   8    3    2   0.5564       2.39405838       0.99965923       0.88493787
   9    3    2   0.5564       4.43964102       0.07771667       2.79667193
  10    4    1  -1.1128       6.67474612       0.47482078       5.20790288
  11    4    2   0.5564       7.62373227       9.01813145       4.65921852
  12    4    2   0.5564       5.57814962       9.94007402       6.57095256

Bonds 

   1    1    1    2
   2    1    1    3
   3    1    4    5
   4    1    4    6
   5    1    7    8
   6    1    7    9
   7    1   10   11
   8    1   10   12

Angles 

   1    1    2    1    3
   2    1    5    4    6
   3    1    8    7    9
   4    1   11   10   12
