LAMMPS (11 Aug 2017)
clear
units electron
boundary p p p
atom_modify sort 0 0.0

### interactions
atom_style full
pair_style      lj/cut/tip4p/long 1 2 1 1 0.278072379 17.007
bond_style      class2
angle_style     harmonic
kspace_style pppm/tip4p 0.0001
read_data tmp/data.lammps
