ITEM: TIMESTEP
0
ITEM: NUMBER OF ATOMS
12
ITEM: BOX BOUNDS pp pp pp
0.0000000000000000e+00 1.0017790700000001e+01
0.0000000000000000e+00 1.0017790600000000e+01
0.0000000000000000e+00 7.5485612399999997e+00
ITEM: ATOMS element x y z 
O 9.54297 6.67475 3.32076 
H 0.999659 7.62373 2.77208 
H 0.0777166 5.57815 4.68381 
O 0.474821 3.34304 7.09504 
H 9.01813 2.39406 6.54636 
H 9.94007 4.43964 0.909532 
O 3.34304 9.54297 1.43362 
H 2.39406 0.999659 0.884938 
H 4.43964 0.0777167 2.79667 
O 6.67475 0.474821 5.2079 
H 7.62373 9.01813 4.65922 
H 5.57815 9.94007 6.57095 
ITEM: TIMESTEP
1
ITEM: NUMBER OF ATOMS
12
ITEM: BOX BOUNDS pp pp pp
0.0000000000000000e+00 1.0017790700000001e+01
0.0000000000000000e+00 1.0017790600000000e+01
0.0000000000000000e+00 7.5485612399999997e+00
ITEM: ATOMS element x y z 
O 9.54297 6.67475 3.32076 
H 0.999661 7.62373 2.77208 
H 0.0777183 5.57815 4.68381 
O 0.474819 3.34304 7.09504 
H 9.01813 2.39406 6.54636 
H 9.94007 4.43964 0.909531 
O 3.34304 9.54297 1.43362 
H 2.39406 0.999661 0.884938 
H 4.43964 0.0777183 2.79667 
O 6.67475 0.474819 5.2079 
H 7.62373 9.01813 4.65922 
H 5.57815 9.94007 6.57095 
